 # Fcc Cu oriented X=[110] Y=[-110] Z=[001]. Generated by Praveenkumar Hiremath
 
        7200  atoms
           1  atom types
 
      0.00000000     255.61910140  xlo xhi
      0.00000000      15.33714608  ylo yhi
      0.00000000      21.69000000  zlo zhi
 
Masses
 
           1   63.54600000    # Cu
 
Atoms # atomic
 
         1    1        0.00000000       0.00000000       0.00000000
         2    1        1.27809551       1.27809551       1.80750000
         3    1        2.55619101       0.00000000       0.00000000
         4    1        3.83428652       1.27809551       1.80750000
         5    1        5.11238203       0.00000000       0.00000000
         6    1        6.39047753       1.27809551       1.80750000
         7    1        7.66857304       0.00000000       0.00000000
         8    1        8.94666855       1.27809551       1.80750000
         9    1       10.22476406       0.00000000       0.00000000
        10    1       11.50285956       1.27809551       1.80750000
        11    1       12.78095507       0.00000000       0.00000000
        12    1       14.05905058       1.27809551       1.80750000
        13    1       15.33714608       0.00000000       0.00000000
        14    1       16.61524159       1.27809551       1.80750000
        15    1       17.89333710       0.00000000       0.00000000
        16    1       19.17143260       1.27809551       1.80750000
        17    1       20.44952811       0.00000000       0.00000000
        18    1       21.72762362       1.27809551       1.80750000
        19    1       23.00571913       0.00000000       0.00000000
        20    1       24.28381463       1.27809551       1.80750000
        21    1       25.56191014       0.00000000       0.00000000
        22    1       26.84000565       1.27809551       1.80750000
        23    1       28.11810115       0.00000000       0.00000000
        24    1       29.39619666       1.27809551       1.80750000
        25    1       30.67429217       0.00000000       0.00000000
        26    1       31.95238767       1.27809551       1.80750000
        27    1       33.23048318       0.00000000       0.00000000
        28    1       34.50857869       1.27809551       1.80750000
        29    1       35.78667420       0.00000000       0.00000000
        30    1       37.06476970       1.27809551       1.80750000
        31    1       38.34286521       0.00000000       0.00000000
        32    1       39.62096072       1.27809551       1.80750000
        33    1       40.89905622       0.00000000       0.00000000
        34    1       42.17715173       1.27809551       1.80750000
        35    1       43.45524724       0.00000000       0.00000000
        36    1       44.73334274       1.27809551       1.80750000
        37    1       46.01143825       0.00000000       0.00000000
        38    1       47.28953376       1.27809551       1.80750000
        39    1       48.56762927       0.00000000       0.00000000
        40    1       49.84572477       1.27809551       1.80750000
        41    1       51.12382028       0.00000000       0.00000000
        42    1       52.40191579       1.27809551       1.80750000
        43    1       53.68001129       0.00000000       0.00000000
        44    1       54.95810680       1.27809551       1.80750000
        45    1       56.23620231       0.00000000       0.00000000
        46    1       57.51429781       1.27809551       1.80750000
        47    1       58.79239332       0.00000000       0.00000000
        48    1       60.07048883       1.27809551       1.80750000
        49    1       61.34858434       0.00000000       0.00000000
        50    1       62.62667984       1.27809551       1.80750000
        51    1       63.90477535       0.00000000       0.00000000
        52    1       65.18287086       1.27809551       1.80750000
        53    1       66.46096636       0.00000000       0.00000000
        54    1       67.73906187       1.27809551       1.80750000
        55    1       69.01715738       0.00000000       0.00000000
        56    1       70.29525288       1.27809551       1.80750000
        57    1       71.57334839       0.00000000       0.00000000
        58    1       72.85144390       1.27809551       1.80750000
        59    1       74.12953941       0.00000000       0.00000000
        60    1       75.40763491       1.27809551       1.80750000
        61    1       76.68573042       0.00000000       0.00000000
        62    1       77.96382593       1.27809551       1.80750000
        63    1       79.24192143       0.00000000       0.00000000
        64    1       80.52001694       1.27809551       1.80750000
        65    1       81.79811245       0.00000000       0.00000000
        66    1       83.07620795       1.27809551       1.80750000
        67    1       84.35430346       0.00000000       0.00000000
        68    1       85.63239897       1.27809551       1.80750000
        69    1       86.91049448       0.00000000       0.00000000
        70    1       88.18858998       1.27809551       1.80750000
        71    1       89.46668549       0.00000000       0.00000000
        72    1       90.74478100       1.27809551       1.80750000
        73    1       92.02287650       0.00000000       0.00000000
        74    1       93.30097201       1.27809551       1.80750000
        75    1       94.57906752       0.00000000       0.00000000
        76    1       95.85716302       1.27809551       1.80750000
        77    1       97.13525853       0.00000000       0.00000000
        78    1       98.41335404       1.27809551       1.80750000
        79    1       99.69144955       0.00000000       0.00000000
        80    1      100.96954505       1.27809551       1.80750000
        81    1      102.24764056       0.00000000       0.00000000
        82    1      103.52573607       1.27809551       1.80750000
        83    1      104.80383157       0.00000000       0.00000000
        84    1      106.08192708       1.27809551       1.80750000
        85    1      107.36002259       0.00000000       0.00000000
        86    1      108.63811809       1.27809551       1.80750000
        87    1      109.91621360       0.00000000       0.00000000
        88    1      111.19430911       1.27809551       1.80750000
        89    1      112.47240462       0.00000000       0.00000000
        90    1      113.75050012       1.27809551       1.80750000
        91    1      115.02859563       0.00000000       0.00000000
        92    1      116.30669114       1.27809551       1.80750000
        93    1      117.58478664       0.00000000       0.00000000
        94    1      118.86288215       1.27809551       1.80750000
        95    1      120.14097766       0.00000000       0.00000000
        96    1      121.41907316       1.27809551       1.80750000
        97    1      122.69716867       0.00000000       0.00000000
        98    1      123.97526418       1.27809551       1.80750000
        99    1      125.25335969       0.00000000       0.00000000
       100    1      126.53145519       1.27809551       1.80750000
       101    1      127.80955070       0.00000000       0.00000000
       102    1      129.08764621       1.27809551       1.80750000
       103    1      130.36574171       0.00000000       0.00000000
       104    1      131.64383722       1.27809551       1.80750000
       105    1      132.92193273       0.00000000       0.00000000
       106    1      134.20002823       1.27809551       1.80750000
       107    1      135.47812374       0.00000000       0.00000000
       108    1      136.75621925       1.27809551       1.80750000
       109    1      138.03431476       0.00000000       0.00000000
       110    1      139.31241026       1.27809551       1.80750000
       111    1      140.59050577       0.00000000       0.00000000
       112    1      141.86860128       1.27809551       1.80750000
       113    1      143.14669678       0.00000000       0.00000000
       114    1      144.42479229       1.27809551       1.80750000
       115    1      145.70288780       0.00000000       0.00000000
       116    1      146.98098330       1.27809551       1.80750000
       117    1      148.25907881       0.00000000       0.00000000
       118    1      149.53717432       1.27809551       1.80750000
       119    1      150.81526983       0.00000000       0.00000000
       120    1      152.09336533       1.27809551       1.80750000
       121    1      153.37146084       0.00000000       0.00000000
       122    1      154.64955635       1.27809551       1.80750000
       123    1      155.92765185       0.00000000       0.00000000
       124    1      157.20574736       1.27809551       1.80750000
       125    1      158.48384287       0.00000000       0.00000000
       126    1      159.76193837       1.27809551       1.80750000
       127    1      161.04003388       0.00000000       0.00000000
       128    1      162.31812939       1.27809551       1.80750000
       129    1      163.59622490       0.00000000       0.00000000
       130    1      164.87432040       1.27809551       1.80750000
       131    1      166.15241591       0.00000000       0.00000000
       132    1      167.43051142       1.27809551       1.80750000
       133    1      168.70860692       0.00000000       0.00000000
       134    1      169.98670243       1.27809551       1.80750000
       135    1      171.26479794       0.00000000       0.00000000
       136    1      172.54289344       1.27809551       1.80750000
       137    1      173.82098895       0.00000000       0.00000000
       138    1      175.09908446       1.27809551       1.80750000
       139    1      176.37717997       0.00000000       0.00000000
       140    1      177.65527547       1.27809551       1.80750000
       141    1      178.93337098       0.00000000       0.00000000
       142    1      180.21146649       1.27809551       1.80750000
       143    1      181.48956199       0.00000000       0.00000000
       144    1      182.76765750       1.27809551       1.80750000
       145    1      184.04575301       0.00000000       0.00000000
       146    1      185.32384851       1.27809551       1.80750000
       147    1      186.60194402       0.00000000       0.00000000
       148    1      187.88003953       1.27809551       1.80750000
       149    1      189.15813504       0.00000000       0.00000000
       150    1      190.43623054       1.27809551       1.80750000
       151    1      191.71432605       0.00000000       0.00000000
       152    1      192.99242156       1.27809551       1.80750000
       153    1      194.27051706       0.00000000       0.00000000
       154    1      195.54861257       1.27809551       1.80750000
       155    1      196.82670808       0.00000000       0.00000000
       156    1      198.10480358       1.27809551       1.80750000
       157    1      199.38289909       0.00000000       0.00000000
       158    1      200.66099460       1.27809551       1.80750000
       159    1      201.93909011       0.00000000       0.00000000
       160    1      203.21718561       1.27809551       1.80750000
       161    1      204.49528112       0.00000000       0.00000000
       162    1      205.77337663       1.27809551       1.80750000
       163    1      207.05147213       0.00000000       0.00000000
       164    1      208.32956764       1.27809551       1.80750000
       165    1      209.60766315       0.00000000       0.00000000
       166    1      210.88575865       1.27809551       1.80750000
       167    1      212.16385416       0.00000000       0.00000000
       168    1      213.44194967       1.27809551       1.80750000
       169    1      214.72004518       0.00000000       0.00000000
       170    1      215.99814068       1.27809551       1.80750000
       171    1      217.27623619       0.00000000       0.00000000
       172    1      218.55433170       1.27809551       1.80750000
       173    1      219.83242720       0.00000000       0.00000000
       174    1      221.11052271       1.27809551       1.80750000
       175    1      222.38861822       0.00000000       0.00000000
       176    1      223.66671372       1.27809551       1.80750000
       177    1      224.94480923       0.00000000       0.00000000
       178    1      226.22290474       1.27809551       1.80750000
       179    1      227.50100025       0.00000000       0.00000000
       180    1      228.77909575       1.27809551       1.80750000
       181    1      230.05719126       0.00000000       0.00000000
       182    1      231.33528677       1.27809551       1.80750000
       183    1      232.61338227       0.00000000       0.00000000
       184    1      233.89147778       1.27809551       1.80750000
       185    1      235.16957329       0.00000000       0.00000000
       186    1      236.44766879       1.27809551       1.80750000
       187    1      237.72576430       0.00000000       0.00000000
       188    1      239.00385981       1.27809551       1.80750000
       189    1      240.28195532       0.00000000       0.00000000
       190    1      241.56005082       1.27809551       1.80750000
       191    1      242.83814633       0.00000000       0.00000000
       192    1      244.11624184       1.27809551       1.80750000
       193    1      245.39433734       0.00000000       0.00000000
       194    1      246.67243285       1.27809551       1.80750000
       195    1      247.95052836       0.00000000       0.00000000
       196    1      249.22862386       1.27809551       1.80750000
       197    1      250.50671937       0.00000000       0.00000000
       198    1      251.78481488       1.27809551       1.80750000
       199    1      253.06291038       0.00000000       0.00000000
       200    1      254.34100589       1.27809551       1.80750000
       201    1        0.00000000       2.55619101       0.00000000
       202    1        1.27809551       3.83428652       1.80750000
       203    1        2.55619101       2.55619101       0.00000000
       204    1        3.83428652       3.83428652       1.80750000
       205    1        5.11238203       2.55619101       0.00000000
       206    1        6.39047753       3.83428652       1.80750000
       207    1        7.66857304       2.55619101       0.00000000
       208    1        8.94666855       3.83428652       1.80750000
       209    1       10.22476406       2.55619101       0.00000000
       210    1       11.50285956       3.83428652       1.80750000
       211    1       12.78095507       2.55619101       0.00000000
       212    1       14.05905058       3.83428652       1.80750000
       213    1       15.33714608       2.55619101       0.00000000
       214    1       16.61524159       3.83428652       1.80750000
       215    1       17.89333710       2.55619101       0.00000000
       216    1       19.17143260       3.83428652       1.80750000
       217    1       20.44952811       2.55619101       0.00000000
       218    1       21.72762362       3.83428652       1.80750000
       219    1       23.00571913       2.55619101       0.00000000
       220    1       24.28381463       3.83428652       1.80750000
       221    1       25.56191014       2.55619101       0.00000000
       222    1       26.84000565       3.83428652       1.80750000
       223    1       28.11810115       2.55619101       0.00000000
       224    1       29.39619666       3.83428652       1.80750000
       225    1       30.67429217       2.55619101       0.00000000
       226    1       31.95238767       3.83428652       1.80750000
       227    1       33.23048318       2.55619101       0.00000000
       228    1       34.50857869       3.83428652       1.80750000
       229    1       35.78667420       2.55619101       0.00000000
       230    1       37.06476970       3.83428652       1.80750000
       231    1       38.34286521       2.55619101       0.00000000
       232    1       39.62096072       3.83428652       1.80750000
       233    1       40.89905622       2.55619101       0.00000000
       234    1       42.17715173       3.83428652       1.80750000
       235    1       43.45524724       2.55619101       0.00000000
       236    1       44.73334274       3.83428652       1.80750000
       237    1       46.01143825       2.55619101       0.00000000
       238    1       47.28953376       3.83428652       1.80750000
       239    1       48.56762927       2.55619101       0.00000000
       240    1       49.84572477       3.83428652       1.80750000
       241    1       51.12382028       2.55619101       0.00000000
       242    1       52.40191579       3.83428652       1.80750000
       243    1       53.68001129       2.55619101       0.00000000
       244    1       54.95810680       3.83428652       1.80750000
       245    1       56.23620231       2.55619101       0.00000000
       246    1       57.51429781       3.83428652       1.80750000
       247    1       58.79239332       2.55619101       0.00000000
       248    1       60.07048883       3.83428652       1.80750000
       249    1       61.34858434       2.55619101       0.00000000
       250    1       62.62667984       3.83428652       1.80750000
       251    1       63.90477535       2.55619101       0.00000000
       252    1       65.18287086       3.83428652       1.80750000
       253    1       66.46096636       2.55619101       0.00000000
       254    1       67.73906187       3.83428652       1.80750000
       255    1       69.01715738       2.55619101       0.00000000
       256    1       70.29525288       3.83428652       1.80750000
       257    1       71.57334839       2.55619101       0.00000000
       258    1       72.85144390       3.83428652       1.80750000
       259    1       74.12953941       2.55619101       0.00000000
       260    1       75.40763491       3.83428652       1.80750000
       261    1       76.68573042       2.55619101       0.00000000
       262    1       77.96382593       3.83428652       1.80750000
       263    1       79.24192143       2.55619101       0.00000000
       264    1       80.52001694       3.83428652       1.80750000
       265    1       81.79811245       2.55619101       0.00000000
       266    1       83.07620795       3.83428652       1.80750000
       267    1       84.35430346       2.55619101       0.00000000
       268    1       85.63239897       3.83428652       1.80750000
       269    1       86.91049448       2.55619101       0.00000000
       270    1       88.18858998       3.83428652       1.80750000
       271    1       89.46668549       2.55619101       0.00000000
       272    1       90.74478100       3.83428652       1.80750000
       273    1       92.02287650       2.55619101       0.00000000
       274    1       93.30097201       3.83428652       1.80750000
       275    1       94.57906752       2.55619101       0.00000000
       276    1       95.85716302       3.83428652       1.80750000
       277    1       97.13525853       2.55619101       0.00000000
       278    1       98.41335404       3.83428652       1.80750000
       279    1       99.69144955       2.55619101       0.00000000
       280    1      100.96954505       3.83428652       1.80750000
       281    1      102.24764056       2.55619101       0.00000000
       282    1      103.52573607       3.83428652       1.80750000
       283    1      104.80383157       2.55619101       0.00000000
       284    1      106.08192708       3.83428652       1.80750000
       285    1      107.36002259       2.55619101       0.00000000
       286    1      108.63811809       3.83428652       1.80750000
       287    1      109.91621360       2.55619101       0.00000000
       288    1      111.19430911       3.83428652       1.80750000
       289    1      112.47240462       2.55619101       0.00000000
       290    1      113.75050012       3.83428652       1.80750000
       291    1      115.02859563       2.55619101       0.00000000
       292    1      116.30669114       3.83428652       1.80750000
       293    1      117.58478664       2.55619101       0.00000000
       294    1      118.86288215       3.83428652       1.80750000
       295    1      120.14097766       2.55619101       0.00000000
       296    1      121.41907316       3.83428652       1.80750000
       297    1      122.69716867       2.55619101       0.00000000
       298    1      123.97526418       3.83428652       1.80750000
       299    1      125.25335969       2.55619101       0.00000000
       300    1      126.53145519       3.83428652       1.80750000
       301    1      127.80955070       2.55619101       0.00000000
       302    1      129.08764621       3.83428652       1.80750000
       303    1      130.36574171       2.55619101       0.00000000
       304    1      131.64383722       3.83428652       1.80750000
       305    1      132.92193273       2.55619101       0.00000000
       306    1      134.20002823       3.83428652       1.80750000
       307    1      135.47812374       2.55619101       0.00000000
       308    1      136.75621925       3.83428652       1.80750000
       309    1      138.03431476       2.55619101       0.00000000
       310    1      139.31241026       3.83428652       1.80750000
       311    1      140.59050577       2.55619101       0.00000000
       312    1      141.86860128       3.83428652       1.80750000
       313    1      143.14669678       2.55619101       0.00000000
       314    1      144.42479229       3.83428652       1.80750000
       315    1      145.70288780       2.55619101       0.00000000
       316    1      146.98098330       3.83428652       1.80750000
       317    1      148.25907881       2.55619101       0.00000000
       318    1      149.53717432       3.83428652       1.80750000
       319    1      150.81526983       2.55619101       0.00000000
       320    1      152.09336533       3.83428652       1.80750000
       321    1      153.37146084       2.55619101       0.00000000
       322    1      154.64955635       3.83428652       1.80750000
       323    1      155.92765185       2.55619101       0.00000000
       324    1      157.20574736       3.83428652       1.80750000
       325    1      158.48384287       2.55619101       0.00000000
       326    1      159.76193837       3.83428652       1.80750000
       327    1      161.04003388       2.55619101       0.00000000
       328    1      162.31812939       3.83428652       1.80750000
       329    1      163.59622490       2.55619101       0.00000000
       330    1      164.87432040       3.83428652       1.80750000
       331    1      166.15241591       2.55619101       0.00000000
       332    1      167.43051142       3.83428652       1.80750000
       333    1      168.70860692       2.55619101       0.00000000
       334    1      169.98670243       3.83428652       1.80750000
       335    1      171.26479794       2.55619101       0.00000000
       336    1      172.54289344       3.83428652       1.80750000
       337    1      173.82098895       2.55619101       0.00000000
       338    1      175.09908446       3.83428652       1.80750000
       339    1      176.37717997       2.55619101       0.00000000
       340    1      177.65527547       3.83428652       1.80750000
       341    1      178.93337098       2.55619101       0.00000000
       342    1      180.21146649       3.83428652       1.80750000
       343    1      181.48956199       2.55619101       0.00000000
       344    1      182.76765750       3.83428652       1.80750000
       345    1      184.04575301       2.55619101       0.00000000
       346    1      185.32384851       3.83428652       1.80750000
       347    1      186.60194402       2.55619101       0.00000000
       348    1      187.88003953       3.83428652       1.80750000
       349    1      189.15813504       2.55619101       0.00000000
       350    1      190.43623054       3.83428652       1.80750000
       351    1      191.71432605       2.55619101       0.00000000
       352    1      192.99242156       3.83428652       1.80750000
       353    1      194.27051706       2.55619101       0.00000000
       354    1      195.54861257       3.83428652       1.80750000
       355    1      196.82670808       2.55619101       0.00000000
       356    1      198.10480358       3.83428652       1.80750000
       357    1      199.38289909       2.55619101       0.00000000
       358    1      200.66099460       3.83428652       1.80750000
       359    1      201.93909011       2.55619101       0.00000000
       360    1      203.21718561       3.83428652       1.80750000
       361    1      204.49528112       2.55619101       0.00000000
       362    1      205.77337663       3.83428652       1.80750000
       363    1      207.05147213       2.55619101       0.00000000
       364    1      208.32956764       3.83428652       1.80750000
       365    1      209.60766315       2.55619101       0.00000000
       366    1      210.88575865       3.83428652       1.80750000
       367    1      212.16385416       2.55619101       0.00000000
       368    1      213.44194967       3.83428652       1.80750000
       369    1      214.72004518       2.55619101       0.00000000
       370    1      215.99814068       3.83428652       1.80750000
       371    1      217.27623619       2.55619101       0.00000000
       372    1      218.55433170       3.83428652       1.80750000
       373    1      219.83242720       2.55619101       0.00000000
       374    1      221.11052271       3.83428652       1.80750000
       375    1      222.38861822       2.55619101       0.00000000
       376    1      223.66671372       3.83428652       1.80750000
       377    1      224.94480923       2.55619101       0.00000000
       378    1      226.22290474       3.83428652       1.80750000
       379    1      227.50100025       2.55619101       0.00000000
       380    1      228.77909575       3.83428652       1.80750000
       381    1      230.05719126       2.55619101       0.00000000
       382    1      231.33528677       3.83428652       1.80750000
       383    1      232.61338227       2.55619101       0.00000000
       384    1      233.89147778       3.83428652       1.80750000
       385    1      235.16957329       2.55619101       0.00000000
       386    1      236.44766879       3.83428652       1.80750000
       387    1      237.72576430       2.55619101       0.00000000
       388    1      239.00385981       3.83428652       1.80750000
       389    1      240.28195532       2.55619101       0.00000000
       390    1      241.56005082       3.83428652       1.80750000
       391    1      242.83814633       2.55619101       0.00000000
       392    1      244.11624184       3.83428652       1.80750000
       393    1      245.39433734       2.55619101       0.00000000
       394    1      246.67243285       3.83428652       1.80750000
       395    1      247.95052836       2.55619101       0.00000000
       396    1      249.22862386       3.83428652       1.80750000
       397    1      250.50671937       2.55619101       0.00000000
       398    1      251.78481488       3.83428652       1.80750000
       399    1      253.06291038       2.55619101       0.00000000
       400    1      254.34100589       3.83428652       1.80750000
       401    1        0.00000000       5.11238203       0.00000000
       402    1        1.27809551       6.39047753       1.80750000
       403    1        2.55619101       5.11238203       0.00000000
       404    1        3.83428652       6.39047753       1.80750000
       405    1        5.11238203       5.11238203       0.00000000
       406    1        6.39047753       6.39047753       1.80750000
       407    1        7.66857304       5.11238203       0.00000000
       408    1        8.94666855       6.39047753       1.80750000
       409    1       10.22476406       5.11238203       0.00000000
       410    1       11.50285956       6.39047753       1.80750000
       411    1       12.78095507       5.11238203       0.00000000
       412    1       14.05905058       6.39047753       1.80750000
       413    1       15.33714608       5.11238203       0.00000000
       414    1       16.61524159       6.39047753       1.80750000
       415    1       17.89333710       5.11238203       0.00000000
       416    1       19.17143260       6.39047753       1.80750000
       417    1       20.44952811       5.11238203       0.00000000
       418    1       21.72762362       6.39047753       1.80750000
       419    1       23.00571913       5.11238203       0.00000000
       420    1       24.28381463       6.39047753       1.80750000
       421    1       25.56191014       5.11238203       0.00000000
       422    1       26.84000565       6.39047753       1.80750000
       423    1       28.11810115       5.11238203       0.00000000
       424    1       29.39619666       6.39047753       1.80750000
       425    1       30.67429217       5.11238203       0.00000000
       426    1       31.95238767       6.39047753       1.80750000
       427    1       33.23048318       5.11238203       0.00000000
       428    1       34.50857869       6.39047753       1.80750000
       429    1       35.78667420       5.11238203       0.00000000
       430    1       37.06476970       6.39047753       1.80750000
       431    1       38.34286521       5.11238203       0.00000000
       432    1       39.62096072       6.39047753       1.80750000
       433    1       40.89905622       5.11238203       0.00000000
       434    1       42.17715173       6.39047753       1.80750000
       435    1       43.45524724       5.11238203       0.00000000
       436    1       44.73334274       6.39047753       1.80750000