 # Fcc Cu oriented X=[110] Y=[1-11] Z=[1-1-2].
 
       21600  atoms
           1  atom types
 
      0.00000000     255.61910140  xlo xhi
      0.00000000      37.56818202  ylo yhi
      0.00000000      26.56471626  zlo zhi
 
Masses
 
           1   63.54600000    # Cu
 
Atoms # atomic
 
         1    1        0.00000000       4.17424245       2.95163514
         2    1        0.00000000       0.00000000       0.00000000
         3    1       -0.00000000       2.08712122       1.47581757
         4    1        1.27809551       2.08712122       3.68954393
         5    1        1.27809551       4.17424245       0.73790879
         6    1        1.27809551      -0.00000000       2.21372636
         7    1        2.55619101       4.17424245       2.95163514
         8    1        2.55619101       0.00000000       0.00000000
         9    1        2.55619101       2.08712122       1.47581757
        10    1        3.83428652       2.08712122       3.68954393
        11    1        3.83428652       4.17424245       0.73790879
        12    1        3.83428652      -0.00000000       2.21372636
        13    1        5.11238203       4.17424245       2.95163514
        14    1        5.11238203       0.00000000       0.00000000
        15    1        5.11238203       2.08712122       1.47581757
        16    1        6.39047753       2.08712122       3.68954393
        17    1        6.39047753       4.17424245       0.73790879
        18    1        6.39047753      -0.00000000       2.21372636
        19    1        7.66857304       4.17424245       2.95163514
        20    1        7.66857304       0.00000000       0.00000000
        21    1        7.66857304       2.08712122       1.47581757
        22    1        8.94666855       2.08712122       3.68954393
        23    1        8.94666855       4.17424245       0.73790879
        24    1        8.94666855      -0.00000000       2.21372636
        25    1       10.22476406       4.17424245       2.95163514
        26    1       10.22476406       0.00000000       0.00000000
        27    1       10.22476406       2.08712122       1.47581757
        28    1       11.50285956       2.08712122       3.68954393
        29    1       11.50285956       4.17424245       0.73790879
        30    1       11.50285956      -0.00000000       2.21372636
        31    1       12.78095507       4.17424245       2.95163514
        32    1       12.78095507       0.00000000       0.00000000
        33    1       12.78095507       2.08712122       1.47581757
        34    1       14.05905058       2.08712122       3.68954393
        35    1       14.05905058       4.17424245       0.73790879
        36    1       14.05905058      -0.00000000       2.21372636
        37    1       15.33714608       4.17424245       2.95163514
        38    1       15.33714608       0.00000000       0.00000000
        39    1       15.33714608       2.08712122       1.47581757
        40    1       16.61524159       2.08712122       3.68954393
        41    1       16.61524159       4.17424245       0.73790879
        42    1       16.61524159      -0.00000000       2.21372636
        43    1       17.89333710       4.17424245       2.95163514
        44    1       17.89333710       0.00000000       0.00000000
        45    1       17.89333710       2.08712122       1.47581757
        46    1       19.17143260       2.08712122       3.68954393
        47    1       19.17143260       4.17424245       0.73790879
        48    1       19.17143260      -0.00000000       2.21372636
        49    1       20.44952811       4.17424245       2.95163514
        50    1       20.44952811       0.00000000       0.00000000
        51    1       20.44952811       2.08712122       1.47581757
        52    1       21.72762362       2.08712122       3.68954393
        53    1       21.72762362       4.17424245       0.73790879
        54    1       21.72762362      -0.00000000       2.21372636
        55    1       23.00571913       4.17424245       2.95163514
        56    1       23.00571913       0.00000000       0.00000000
        57    1       23.00571913       2.08712122       1.47581757
        58    1       24.28381463       2.08712122       3.68954393
        59    1       24.28381463       4.17424245       0.73790879
        60    1       24.28381463      -0.00000000       2.21372636
        61    1       25.56191014       4.17424245       2.95163514
        62    1       25.56191014       0.00000000       0.00000000
        63    1       25.56191014       2.08712122       1.47581757
        64    1       26.84000565       2.08712122       3.68954393
        65    1       26.84000565       4.17424245       0.73790879
        66    1       26.84000565      -0.00000000       2.21372636
        67    1       28.11810115       4.17424245       2.95163514
        68    1       28.11810115       0.00000000       0.00000000
        69    1       28.11810115       2.08712122       1.47581757
        70    1       29.39619666       2.08712122       3.68954393
        71    1       29.39619666       4.17424245       0.73790879
        72    1       29.39619666      -0.00000000       2.21372636
        73    1       30.67429217       4.17424245       2.95163514
        74    1       30.67429217       0.00000000       0.00000000
        75    1       30.67429217       2.08712122       1.47581757
        76    1       31.95238767       2.08712122       3.68954393
        77    1       31.95238767       4.17424245       0.73790879
        78    1       31.95238767      -0.00000000       2.21372636
        79    1       33.23048318       4.17424245       2.95163514
        80    1       33.23048318       0.00000000       0.00000000
        81    1       33.23048318       2.08712122       1.47581757
        82    1       34.50857869       2.08712122       3.68954393
        83    1       34.50857869       4.17424245       0.73790879
        84    1       34.50857869      -0.00000000       2.21372636
        85    1       35.78667420       4.17424245       2.95163514
        86    1       35.78667420       0.00000000       0.00000000
        87    1       35.78667420       2.08712122       1.47581757
        88    1       37.06476970       2.08712122       3.68954393
        89    1       37.06476970       4.17424245       0.73790879
        90    1       37.06476970      -0.00000000       2.21372636
        91    1       38.34286521       4.17424245       2.95163514
        92    1       38.34286521       0.00000000       0.00000000
        93    1       38.34286521       2.08712122       1.47581757
        94    1       39.62096072       2.08712122       3.68954393
        95    1       39.62096072       4.17424245       0.73790879
        96    1       39.62096072      -0.00000000       2.21372636
        97    1       40.89905622       4.17424245       2.95163514
        98    1       40.89905622       0.00000000       0.00000000
        99    1       40.89905622       2.08712122       1.47581757
       100    1       42.17715173       2.08712122       3.68954393
       101    1       42.17715173       4.17424245       0.73790879
       102    1       42.17715173      -0.00000000       2.21372636
       103    1       43.45524724       4.17424245       2.95163514
       104    1       43.45524724       0.00000000       0.00000000
       105    1       43.45524724       2.08712122       1.47581757
       106    1       44.73334274       2.08712122       3.68954393
       107    1       44.73334274       4.17424245       0.73790879
       108    1       44.73334274      -0.00000000       2.21372636
       109    1       46.01143825       4.17424245       2.95163514
       110    1       46.01143825       0.00000000       0.00000000
       111    1       46.01143825       2.08712122       1.47581757
       112    1       47.28953376       2.08712122       3.68954393
       113    1       47.28953376       4.17424245       0.73790879
       114    1       47.28953376      -0.00000000       2.21372636
       115    1       48.56762927       4.17424245       2.95163514
       116    1       48.56762927       0.00000000       0.00000000
       117    1       48.56762927       2.08712122       1.47581757
       118    1       49.84572477       2.08712122       3.68954393
       119    1       49.84572477       4.17424245       0.73790879
       120    1       49.84572477      -0.00000000       2.21372636
       121    1       51.12382028       4.17424245       2.95163514
       122    1       51.12382028       0.00000000       0.00000000
       123    1       51.12382028       2.08712122       1.47581757
       124    1       52.40191579       2.08712122       3.68954393
       125    1       52.40191579       4.17424245       0.73790879
       126    1       52.40191579      -0.00000000       2.21372636
       127    1       53.68001129       4.17424245       2.95163514
       128    1       53.68001129       0.00000000       0.00000000
       129    1       53.68001129       2.08712122       1.47581757
       130    1       54.95810680       2.08712122       3.68954393
       131    1       54.95810680       4.17424245       0.73790879
       132    1       54.95810680      -0.00000000       2.21372636
       133    1       56.23620231       4.17424245       2.95163514
       134    1       56.23620231       0.00000000       0.00000000
       135    1       56.23620231       2.08712122       1.47581757
       136    1       57.51429781       2.08712122       3.68954393
       137    1       57.51429781       4.17424245       0.73790879
       138    1       57.51429781      -0.00000000       2.21372636
       139    1       58.79239332       4.17424245       2.95163514
       140    1       58.79239332       0.00000000       0.00000000
       141    1       58.79239332       2.08712122       1.47581757
       142    1       60.07048883       2.08712122       3.68954393
       143    1       60.07048883       4.17424245       0.73790879
       144    1       60.07048883      -0.00000000       2.21372636
       145    1       61.34858434       4.17424245       2.95163514
       146    1       61.34858434       0.00000000       0.00000000
       147    1       61.34858434       2.08712122       1.47581757
       148    1       62.62667984       2.08712122       3.68954393
       149    1       62.62667984       4.17424245       0.73790879
       150    1       62.62667984      -0.00000000       2.21372636
       151    1       63.90477535       4.17424245       2.95163514
       152    1       63.90477535       0.00000000       0.00000000
       153    1       63.90477535       2.08712122       1.47581757
       154    1       65.18287086       2.08712122       3.68954393
       155    1       65.18287086       4.17424245       0.73790879
       156    1       65.18287086      -0.00000000       2.21372636
       157    1       66.46096636       4.17424245       2.95163514
       158    1       66.46096636       0.00000000       0.00000000
       159    1       66.46096636       2.08712122       1.47581757
       160    1       67.73906187       2.08712122       3.68954393
       161    1       67.73906187       4.17424245       0.73790879
       162    1       67.73906187      -0.00000000       2.21372636
       163    1       69.01715738       4.17424245       2.95163514
       164    1       69.01715738       0.00000000       0.00000000
       165    1       69.01715738       2.08712122       1.47581757
       166    1       70.29525288       2.08712122       3.68954393
       167    1       70.29525288       4.17424245       0.73790879
       168    1       70.29525288      -0.00000000       2.21372636
       169    1       71.57334839       4.17424245       2.95163514
       170    1       71.57334839       0.00000000       0.00000000
       171    1       71.57334839       2.08712122       1.47581757
       172    1       72.85144390       2.08712122       3.68954393
       173    1       72.85144390       4.17424245       0.73790879
       174    1       72.85144390      -0.00000000       2.21372636
       175    1       74.12953941       4.17424245       2.95163514
       176    1       74.12953941       0.00000000       0.00000000
       177    1       74.12953941       2.08712122       1.47581757
       178    1       75.40763491       2.08712122       3.68954393
       179    1       75.40763491       4.17424245       0.73790879
       180    1       75.40763491      -0.00000000       2.21372636
       181    1       76.68573042       4.17424245       2.95163514
       182    1       76.68573042       0.00000000       0.00000000
       183    1       76.68573042       2.08712122       1.47581757
       184    1       77.96382593       2.08712122       3.68954393
       185    1       77.96382593       4.17424245       0.73790879
       186    1       77.96382593      -0.00000000       2.21372636
       187    1       79.24192143       4.17424245       2.95163514
       188    1       79.24192143       0.00000000       0.00000000
       189    1       79.24192143       2.08712122       1.47581757
       190    1       80.52001694       2.08712122       3.68954393
       191    1       80.52001694       4.17424245       0.73790879
       192    1       80.52001694      -0.00000000       2.21372636
       193    1       81.79811245       4.17424245       2.95163514
       194    1       81.79811245       0.00000000       0.00000000
       195    1       81.79811245       2.08712122       1.47581757
       196    1       83.07620795       2.08712122       3.68954393
       197    1       83.07620795       4.17424245       0.73790879
       198    1       83.07620795      -0.00000000       2.21372636
       199    1       84.35430346       4.17424245       2.95163514
       200    1       84.35430346       0.00000000       0.00000000
       201    1       84.35430346       2.08712122       1.47581757
       202    1       85.63239897       2.08712122       3.68954393
       203    1       85.63239897       4.17424245       0.73790879
       204    1       85.63239897      -0.00000000       2.21372636
       205    1       86.91049448       4.17424245       2.95163514
       206    1       86.91049448       0.00000000       0.00000000
       207    1       86.91049448       2.08712122       1.47581757
       208    1       88.18858998       2.08712122       3.68954393
       209    1       88.18858998       4.17424245       0.73790879
       210    1       88.18858998      -0.00000000       2.21372636
       211    1       89.46668549       4.17424245       2.95163514
       212    1       89.46668549       0.00000000       0.00000000
       213    1       89.46668549       2.08712122       1.47581757
       214    1       90.74478100       2.08712122       3.68954393
       215    1       90.74478100       4.17424245       0.73790879
       216    1       90.74478100      -0.00000000       2.21372636
       217    1       92.02287650       4.17424245       2.95163514
       218    1       92.02287650       0.00000000       0.00000000
       219    1       92.02287650       2.08712122       1.47581757
       220    1       93.30097201       2.08712122       3.68954393
       221    1       93.30097201       4.17424245       0.73790879
       222    1       93.30097201      -0.00000000       2.21372636
       223    1       94.57906752       4.17424245       2.95163514
       224    1       94.57906752       0.00000000       0.00000000
       225    1       94.57906752       2.08712122       1.47581757
       226    1       95.85716302       2.08712122       3.68954393
       227    1       95.85716302       4.17424245       0.73790879
       228    1       95.85716302      -0.00000000       2.21372636
       229    1       97.13525853       4.17424245       2.95163514
       230    1       97.13525853       0.00000000       0.00000000
       231    1       97.13525853       2.08712122       1.47581757
       232    1       98.41335404       2.08712122       3.68954393
       233    1       98.41335404       4.17424245       0.73790879
       234    1       98.41335404      -0.00000000       2.21372636
       235    1       99.69144955       4.17424245       2.95163514
       236    1       99.69144955       0.00000000       0.00000000
       237    1       99.69144955       2.08712122       1.47581757
       238    1      100.96954505       2.08712122       3.68954393
       239    1      100.96954505       4.17424245       0.73790879
       240    1      100.96954505      -0.00000000       2.21372636
       241    1      102.24764056       4.17424245       2.95163514
       242    1      102.24764056       0.00000000       0.00000000
       243    1      102.24764056       2.08712122       1.47581757
       244    1      103.52573607       2.08712122       3.68954393
       245    1      103.52573607       4.17424245       0.73790879
       246    1      103.52573607      -0.00000000       2.21372636
       247    1      104.80383157       4.17424245       2.95163514
       248    1      104.80383157       0.00000000       0.00000000
       249    1      104.80383157       2.08712122       1.47581757
       250    1      106.08192708       2.08712122       3.68954393
       251    1      106.08192708       4.17424245       0.73790879
       252    1      106.08192708      -0.00000000       2.21372636
       253    1      107.36002259       4.17424245       2.95163514
       254    1      107.36002259       0.00000000       0.00000000
       255    1      107.36002259       2.08712122       1.47581757
       256    1      108.63811809       2.08712122       3.68954393
       257    1      108.63811809       4.17424245       0.73790879
       258    1      108.63811809      -0.00000000       2.21372636
       259    1      109.91621360       4.17424245       2.95163514
       260    1      109.91621360       0.00000000       0.00000000
       261    1      109.91621360       2.08712122       1.47581757
       262    1      111.19430911       2.08712122       3.68954393
       263    1      111.19430911       4.17424245       0.73790879
       264    1      111.19430911      -0.00000000       2.21372636
       265    1      112.47240462       4.17424245       2.95163514
       266    1      112.47240462       0.00000000       0.00000000
       267    1      112.47240462       2.08712122       1.47581757
       268    1      113.75050012       2.08712122       3.68954393
       269    1      113.75050012       4.17424245       0.73790879
       270    1      113.75050012      -0.00000000       2.21372636
       271    1      115.02859563       4.17424245       2.95163514
       272    1      115.02859563       0.00000000       0.00000000
       273    1      115.02859563       2.08712122       1.47581757
       274    1      116.30669114       2.08712122       3.68954393
       275    1      116.30669114       4.17424245       0.73790879
       276    1      116.30669114      -0.00000000       2.21372636
       277    1      117.58478664       4.17424245       2.95163514
       278    1      117.58478664       0.00000000       0.00000000
       279    1      117.58478664       2.08712122       1.47581757
       280    1      118.86288215       2.08712122       3.68954393
       281    1      118.86288215       4.17424245       0.73790879
       282    1      118.86288215      -0.00000000       2.21372636
       283    1      120.14097766       4.17424245       2.95163514
       284    1      120.14097766       0.00000000       0.00000000
       285    1      120.14097766       2.08712122       1.47581757
       286    1      121.41907316       2.08712122       3.68954393
       287    1      121.41907316       4.17424245       0.73790879
       288    1      121.41907316      -0.00000000       2.21372636
       289    1      122.69716867       4.17424245       2.95163514
       290    1      122.69716867       0.00000000       0.00000000
       291    1      122.69716867       2.08712122       1.47581757
       292    1      123.97526418       2.08712122       3.68954393
       293    1      123.97526418       4.17424245       0.73790879
       294    1      123.97526418      -0.00000000       2.21372636
       295    1      125.25335969       4.17424245       2.95163514
       296    1      125.25335969       0.00000000       0.00000000
       297    1      125.25335969       2.08712122       1.47581757
       298    1      126.53145519       2.08712122       3.68954393
       299    1      126.53145519       4.17424245       0.73790879
       300    1      126.53145519      -0.00000000       2.21372636
       301    1      127.80955070       4.17424245       2.95163514
       302    1      127.80955070       0.00000000       0.00000000
       303    1      127.80955070       2.08712122       1.47581757
       304    1      129.08764621       2.08712122       3.68954393
       305    1      129.08764621       4.17424245       0.73790879
       306    1      129.08764621      -0.00000000       2.21372636
       307    1      130.36574171       4.17424245       2.95163514
       308    1      130.36574171       0.00000000       0.00000000
       309    1      130.36574171       2.08712122       1.47581757
       310    1      131.64383722       2.08712122       3.68954393
       311    1      131.64383722       4.17424245       0.73790879
       312    1      131.64383722      -0.00000000       2.21372636
       313    1      132.92193273       4.17424245       2.95163514
       314    1      132.92193273       0.00000000       0.00000000
       315    1      132.92193273       2.08712122       1.47581757
       316    1      134.20002823       2.08712122       3.68954393
       317    1      134.20002823       4.17424245       0.73790879
       318    1      134.20002823      -0.00000000       2.21372636
       319    1      135.47812374       4.17424245       2.95163514
       320    1      135.47812374       0.00000000       0.00000000
       321    1      135.47812374       2.08712122       1.47581757
       322    1      136.75621925       2.08712122       3.68954393
       323    1      136.75621925       4.17424245       0.73790879
       324    1      136.75621925      -0.00000000       2.21372636
       325    1      138.03431476       4.17424245       2.95163514
       326    1      138.03431476       0.00000000       0.00000000
       327    1      138.03431476       2.08712122       1.47581757
       328    1      139.31241026       2.08712122       3.68954393
       329    1      139.31241026       4.17424245       0.73790879
       330    1      139.31241026      -0.00000000       2.21372636
       331    1      140.59050577       4.17424245       2.95163514
       332    1      140.59050577       0.00000000       0.00000000
       333    1      140.59050577       2.08712122       1.47581757
       334    1      141.86860128       2.08712122       3.68954393
       335    1      141.86860128       4.17424245       0.73790879
       336    1      141.86860128      -0.00000000       2.21372636
       337    1      143.14669678       4.17424245       2.95163514
       338    1      143.14669678       0.00000000       0.00000000
       339    1      143.14669678       2.08712122       1.47581757
       340    1      144.42479229       2.08712122       3.68954393
       341    1      144.42479229       4.17424245       0.73790879
       342    1      144.42479229      -0.00000000       2.21372636
       343    1      145.70288780       4.17424245       2.95163514
       344    1      145.70288780       0.00000000       0.00000000
       345    1      145.70288780       2.08712122       1.47581757
       346    1      146.98098330       2.08712122       3.68954393
       347    1      146.98098330       4.17424245       0.73790879
       348    1      146.98098330      -0.00000000       2.21372636
       349    1      148.25907881       4.17424245       2.95163514
       350    1      148.25907881       0.00000000       0.00000000
       351    1      148.25907881       2.08712122       1.47581757
       352    1      149.53717432       2.08712122       3.68954393
       353    1      149.53717432       4.17424245       0.73790879
       354    1      149.53717432      -0.00000000       2.21372636
       355    1      150.81526983       4.17424245       2.95163514
       356    1      150.81526983       0.00000000       0.00000000
       357    1      150.81526983       2.08712122       1.47581757
       358    1      152.09336533       2.08712122       3.68954393
       359    1      152.09336533       4.17424245       0.73790879
       360    1      152.09336533      -0.00000000       2.21372636
       361    1      153.37146084       4.17424245       2.95163514
       362    1      153.37146084       0.00000000       0.00000000
       363    1      153.37146084       2.08712122       1.47581757
       364    1      154.64955635       2.08712122       3.68954393
       365    1      154.64955635       4.17424245       0.73790879
       366    1      154.64955635      -0.00000000       2.21372636
       367    1      155.92765185       4.17424245       2.95163514
       368    1      155.92765185       0.00000000       0.00000000
       369    1      155.92765185       2.08712122       1.47581757
       370    1      157.20574736       2.08712122       3.68954393
       371    1      157.20574736       4.17424245       0.73790879
       372    1      157.20574736      -0.00000000       2.21372636
       373    1      158.48384287       4.17424245       2.95163514
       374    1      158.48384287       0.00000000       0.00000000
       375    1      158.48384287       2.08712122       1.47581757
       376    1      159.76193837       2.08712122       3.68954393
       377    1      159.76193837       4.17424245       0.73790879
       378    1      159.76193837      -0.00000000       2.21372636
       379    1      161.04003388       4.17424245       2.95163514
       380    1      161.04003388       0.00000000       0.00000000
       381    1      161.04003388       2.08712122       1.47581757
       382    1      162.31812939       2.08712122       3.68954393
       383    1      162.31812939       4.17424245       0.73790879
       384    1      162.31812939      -0.00000000       2.21372636
       385    1      163.59622490       4.17424245       2.95163514
       386    1      163.59622490       0.00000000       0.00000000
       387    1      163.59622490       2.08712122       1.47581757
       388    1      164.87432040       2.08712122       3.68954393
       389    1      164.87432040       4.17424245       0.73790879
       390    1      164.87432040      -0.00000000       2.21372636
       391    1      166.15241591       4.17424245       2.95163514
       392    1      166.15241591       0.00000000       0.00000000
       393    1      166.15241591       2.08712122       1.47581757
       394    1      167.43051142       2.08712122       3.68954393
       395    1      167.43051142       4.17424245       0.73790879
       396    1      167.43051142      -0.00000000       2.21372636
       397    1      168.70860692       4.17424245       2.95163514
       398    1      168.70860692       0.00000000       0.00000000
       399    1      168.70860692       2.08712122       1.47581757
       400    1      169.98670243       2.08712122       3.68954393
       401    1      169.98670243       4.17424245       0.73790879
       402    1      169.98670243      -0.00000000       2.21372636
       403    1      171.26479794       4.17424245       2.95163514
       404    1      171.26479794       0.00000000       0.00000000
       405    1      171.26479794       2.08712122       1.47581757
       406    1      172.54289344       2.08712122       3.68954393
       407    1      172.54289344       4.17424245       0.73790879
       408    1      172.54289344      -0.00000000       2.21372636
       409    1      173.82098895       4.17424245       2.95163514
       410    1      173.82098895       0.00000000       0.00000000
       411    1      173.82098895       2.08712122       1.47581757
       412    1      175.09908446       2.08712122       3.68954393
       413    1      175.09908446       4.17424245       0.73790879
       414    1      175.09908446      -0.00000000       2.21372636
       415    1      176.37717997       4.17424245       2.95163514
       416    1      176.37717997       0.00000000       0.00000000
       417    1      176.37717997       2.08712122       1.47581757
       418    1      177.65527547       2.08712122       3.68954393
       419    1      177.65527547       4.17424245       0.73790879
       420    1      177.65527547      -0.00000000       2.21372636
       421    1      178.93337098       4.17424245       2.95163514
       422    1      178.93337098       0.00000000       0.00000000
       423    1      178.93337098       2.08712122       1.47581757
       424    1      180.21146649       2.08712122       3.68954393
       425    1      180.21146649       4.17424245       0.73790879
       426    1      180.21146649      -0.00000000       2.21372636
       427    1      181.48956199       4.17424245       2.95163514
       428    1      181.48956199       0.00000000       0.00000000
       429    1      181.48956199       2.08712122       1.47581757
       430    1      182.76765750       2.08712122       3.68954393
       431    1      182.76765750       4.17424245       0.73790879
       432    1      182.76765750      -0.00000000       2.21372636
       433    1      184.04575301       4.17424245       2.95163514
       434    1      184.04575301       0.00000000       0.00000000
       435    1      184.04575301       2.08712122       1.47581757
       436    1      185.32384851       2.08712122       3.68954393